<?xml version="1.0" encoding="UTF-8"?>

<!-- generated on 2022-10-12 21:33:03 by Eclipse SUMO GUI Version 1.11.0
<configuration xmlns:xsi="http://www.w3.org/2001/XMLSchema-instance" xsi:noNamespaceSchemaLocation="http://sumo.dlr.de/xsd/sumoConfiguration.xsd">

    <input>
        <net-file value="CIT_2021_PAPER_EVSP_VC0.9.net.xml"/>
        <route-files value="route%20files\CIT_2021_PAPER_EVSP_VC_0.9_EV_High_HighLeft.rou.xml"/>
        <additional-files value="CIT_2021_PAPER_EVSP.add.xml"/>
    </input>

    <output>
        <tripinfo-output value="data\VC_0.9\EV_High\HighLeft\result\1\201_CIT_2021_EVSP_tripInfo.xml"/>
    </output>

    <time>
        <begin value="0"/>
        <end value="7500"/>
    </time>

    <processing>
        <lateral-resolution value="0.15"/>
    </processing>

    <bluelight_device>
        <device.bluelight.deterministic value="false"/>
        <device.bluelight.reactiondist value="30"/>
    </bluelight_device>

    <traci_server>
        <remote-port value="49375"/>
    </traci_server>

    <gui_only>
        <start value="true"/>
    </gui_only>

</configuration>
-->

<tripinfos xmlns:xsi="http://www.w3.org/2001/XMLSchema-instance" xsi:noNamespaceSchemaLocation="http://sumo.dlr.de/xsd/tripinfo_file.xsd">
    <tripinfo id="EV_0" depart="0.00" departLane="N1E2_0" departPos="6.60" departPosLat="0.00" departSpeed="0.00" departDelay="0.00" arrival="49.00" arrivalLane="E3J2_0" arrivalPos="260.00" arrivalPosLat="-0.67" arrivalSpeed="13.73" duration="49.00" routeLength="598.79" waitingTime="0.00" waitingCount="0" stopTime="0.00" timeLoss="4.97" rerouteNo="0" devices="tripinfo_EV_0 ssm_EV_0 bluelight_EV_0" vType="EmergencyVehicle" speedFactor="1.00" vaporized="">
        <bluelight/>
    </tripinfo>
    <tripinfo id="SBT_flow.0" depart="3.00" departLane="N1E2_0" departPos="4.10" departPosLat="0.00" departSpeed="0.00" departDelay="3.00" arrival="54.00" arrivalLane="E4C4_0" arrivalPos="260.00" arrivalPosLat="0.00" arrivalSpeed="12.62" duration="51.00" routeLength="598.24" waitingTime="0.00" waitingCount="0" stopTime="0.00" timeLoss="5.09" rerouteNo="1" devices="tripinfo_SBT_flow.0 routing_SBT_flow.0" vType="Auto" speedFactor="0.94" vaporized=""/>
    <tripinfo id="SBL_flow.0" depart="8.00" departLane="N1E2_0" departPos="4.10" departPosLat="0.00" departSpeed="0.00" departDelay="8.00" arrival="55.00" arrivalLane="E3J2_0" arrivalPos="260.00" arrivalPosLat="0.00" arrivalSpeed="13.97" duration="47.00" routeLength="601.29" waitingTime="0.00" waitingCount="0" stopTime="0.00" timeLoss="6.16" rerouteNo="1" devices="tripinfo_SBL_flow.0 routing_SBL_flow.0" vType="Auto" speedFactor="1.08" vaporized=""/>
    <tripinfo id="NBL_flow.0" depart="0.00" departLane="C4E4_0" departPos="4.10" departPosLat="0.00" departSpeed="0.00" departDelay="0.00" arrival="58.00" arrivalLane="E1C1_0" arrivalPos="260.00" arrivalPosLat="0.00" arrivalSpeed="13.66" duration="58.00" routeLength="601.29" waitingTime="5.00" waitingCount="1" stopTime="0.00" timeLoss="14.88" rerouteNo="1" devices="tripinfo_NBL_flow.0 routing_NBL_flow.0" vType="Auto" speedFactor="1.03" vaporized=""/>
    <tripinfo id="EBT_flow.1" depart="8.00" departLane="C1E1_0" departPos="4.10" departPosLat="0.00" departSpeed="0.00" departDelay="4.86" arrival="70.00" arrivalLane="E3J2_1" arrivalPos="260.00" arrivalPosLat="0.00" arrivalSpeed="14.78" duration="62.00" routeLength="598.24" waitingTime="9.00" waitingCount="1" stopTime="0.00" timeLoss="22.91" rerouteNo="1" devices="tripinfo_EBT_flow.1 routing_EBT_flow.1" vType="Auto" speedFactor="1.12" vaporized=""/>
    <tripinfo id="WBT_flow.0" depart="2.00" departLane="J2E3_0" departPos="4.10" departPosLat="0.00" departSpeed="0.00" departDelay="2.00" arrival="72.00" arrivalLane="E1C1_0" arrivalPos="260.00" arrivalPosLat="0.00" arrivalSpeed="13.68" duration="70.00" routeLength="598.24" waitingTime="16.00" waitingCount="1" stopTime="0.00" timeLoss="27.45" rerouteNo="1" devices="tripinfo_WBT_flow.0 routing_WBT_flow.0" vType="Auto" speedFactor="1.03" vaporized=""/>
    <tripinfo id="WBT_flow.1" depart="7.00" departLane="J2E3_0" departPos="4.10" departPosLat="0.00" departSpeed="0.00" departDelay="3.94" arrival="72.00" arrivalLane="E1C1_1" arrivalPos="260.00" arrivalPosLat="0.00" arrivalSpeed="13.08" duration="65.00" routeLength="598.24" waitingTime="12.00" waitingCount="1" stopTime="0.00" timeLoss="21.28" rerouteNo="1" devices="tripinfo_WBT_flow.1 routing_WBT_flow.1" vType="Auto" speedFactor="0.99" vaporized=""/>
    <tripinfo id="WBR_flow.0" depart="5.00" departLane="J2E3_0" departPos="4.10" departPosLat="0.00" departSpeed="0.00" departDelay="5.00" arrival="73.00" arrivalLane="E2N1_1" arrivalPos="260.00" arrivalPosLat="0.00" arrivalSpeed="14.48" duration="68.00" routeLength="578.51" waitingTime="15.00" waitingCount="1" stopTime="0.00" timeLoss="26.68" rerouteNo="1" devices="tripinfo_WBR_flow.0 routing_WBR_flow.0" vType="Auto" speedFactor="1.05" vaporized=""/>
    <tripinfo id="WBT_flow.3" depart="13.00" departLane="J2E3_0" departPos="4.10" departPosLat="0.00" departSpeed="0.00" departDelay="3.82" arrival="74.00" arrivalLane="E1C1_1" arrivalPos="260.00" arrivalPosLat="0.00" arrivalSpeed="12.73" duration="61.00" routeLength="598.24" waitingTime="7.00" waitingCount="1" stopTime="0.00" timeLoss="17.87" rerouteNo="1" devices="tripinfo_WBT_flow.3 routing_WBT_flow.3" vType="Auto" speedFactor="1.01" vaporized=""/>
    <tripinfo id="WBT_flow.6" depart="21.00" departLane="J2E3_0" departPos="4.10" departPosLat="0.00" departSpeed="0.00" departDelay="2.65" arrival="74.00" arrivalLane="E1C1_0" arrivalPos="260.00" arrivalPosLat="0.00" arrivalSpeed="15.42" duration="53.00" routeLength="598.24" waitingTime="3.00" waitingCount="1" stopTime="0.00" timeLoss="15.61" rerouteNo="1" devices="tripinfo_WBT_flow.6 routing_WBT_flow.6" vType="Auto" speedFactor="1.18" vaporized=""/>
    <tripinfo id="EBR_flow.0" depart="3.00" departLane="C1E1_0" departPos="4.10" departPosLat="0.00" departSpeed="0.00" departDelay="3.00" arrival="75.00" arrivalLane="E4C4_1" arrivalPos="260.00" arrivalPosLat="-1.00" arrivalSpeed="13.02" duration="72.00" routeLength="578.51" waitingTime="16.00" waitingCount="1" stopTime="0.00" timeLoss="26.36" rerouteNo="1" devices="tripinfo_EBR_flow.0 routing_EBR_flow.0" vType="Auto" speedFactor="0.94" vaporized=""/>
    <tripinfo id="EBT_flow.2" depart="12.00" departLane="C1E1_0" departPos="4.10" departPosLat="0.00" departSpeed="0.00" departDelay="5.72" arrival="75.00" arrivalLane="E3J2_1" arrivalPos="260.00" arrivalPosLat="0.00" arrivalSpeed="12.11" duration="63.00" routeLength="598.24" waitingTime="5.00" waitingCount="1" stopTime="0.00" timeLoss="16.94" rerouteNo="1" devices="tripinfo_EBT_flow.2 routing_EBT_flow.2" vType="Auto" speedFactor="0.94" vaporized=""/>
    <tripinfo id="WBT_flow.7" depart="25.00" departLane="J2E3_0" departPos="4.10" departPosLat="0.00" departSpeed="0.00" departDelay="3.59" arrival="75.00" arrivalLane="E1C1_2" arrivalPos="260.00" arrivalPosLat="-0.50" arrivalSpeed="16.20" duration="50.00" routeLength="598.24" waitingTime="0.00" waitingCount="0" stopTime="0.00" timeLoss="12.97" rerouteNo="1" devices="tripinfo_WBT_flow.7 routing_WBT_flow.7" vType="Auto" speedFactor="1.17" vaporized=""/>
    <tripinfo id="EBT_flow.0" depart="0.00" departLane="C1E1_0" departPos="4.10" departPosLat="0.00" departSpeed="0.00" departDelay="0.00" arrival="76.00" arrivalLane="E3J2_0" arrivalPos="260.00" arrivalPosLat="0.00" arrivalSpeed="11.96" duration="76.00" routeLength="598.24" waitingTime="16.00" waitingCount="1" stopTime="0.00" timeLoss="26.43" rerouteNo="1" devices="tripinfo_EBT_flow.0 routing_EBT_flow.0" vType="Auto" speedFactor="0.89" vaporized=""/>
    <tripinfo id="EBT_flow.3" depart="15.00" departLane="C1E1_0" departPos="4.10" departPosLat="0.00" departSpeed="0.00" departDelay="5.58" arrival="77.00" arrivalLane="E3J2_0" arrivalPos="260.00" arrivalPosLat="1.00" arrivalSpeed="13.24" duration="62.00" routeLength="598.24" waitingTime="7.00" waitingCount="1" stopTime="0.00" timeLoss="19.29" rerouteNo="1" devices="tripinfo_EBT_flow.3 routing_EBT_flow.3" vType="Auto" speedFactor="1.02" vaporized=""/>
    <tripinfo id="WBT_flow.8" depart="27.00" departLane="J2E3_0" departPos="4.10" departPosLat="0.00" departSpeed="0.00" departDelay="2.53" arrival="77.00" arrivalLane="E1C1_1" arrivalPos="260.00" arrivalPosLat="0.00" arrivalSpeed="15.33" duration="50.00" routeLength="598.24" waitingTime="0.00" waitingCount="0" stopTime="0.00" timeLoss="12.89" rerouteNo="1" devices="tripinfo_WBT_flow.8 routing_WBT_flow.8" vType="Auto" speedFactor="1.18" vaporized=""/>
    <tripinfo id="WBT_flow.2" depart="10.00" departLane="J2E3_0" departPos="4.10" departPosLat="0.00" departSpeed="0.00" departDelay="3.88" arrival="78.00" arrivalLane="E1C1_0" arrivalPos="260.00" arrivalPosLat="0.00" arrivalSpeed="11.72" duration="68.00" routeLength="598.24" waitingTime="10.00" waitingCount="1" stopTime="0.00" timeLoss="21.53" rerouteNo="1" devices="tripinfo_WBT_flow.2 routing_WBT_flow.2" vType="Auto" speedFactor="0.94" vaporized=""/>
    <tripinfo id="EBT_flow.4" depart="17.00" departLane="C1E1_0" departPos="4.10" departPosLat="0.00" departSpeed="0.00" departDelay="4.44" arrival="79.00" arrivalLane="E3J2_1" arrivalPos="260.00" arrivalPosLat="0.00" arrivalSpeed="11.80" duration="62.00" routeLength="598.24" waitingTime="2.00" waitingCount="1" stopTime="0.00" timeLoss="12.85" rerouteNo="1" devices="tripinfo_EBT_flow.4 routing_EBT_flow.4" vType="Auto" speedFactor="0.89" vaporized=""/>
    <tripinfo id="EBT_flow.7" depart="27.00" departLane="C1E1_0" departPos="4.10" departPosLat="0.00" departSpeed="0.00" departDelay="5.03" arrival="79.00" arrivalLane="E3J2_0" arrivalPos="260.00" arrivalPosLat="0.00" arrivalSpeed="13.46" duration="52.00" routeLength="598.24" waitingTime="0.00" waitingCount="0" stopTime="0.00" timeLoss="8.36" rerouteNo="1" devices="tripinfo_EBT_flow.7 routing_EBT_flow.7" vType="Auto" speedFactor="1.01" vaporized=""/>
    <tripinfo id="WBT_flow.9" depart="34.00" departLane="J2E3_0" departPos="4.10" departPosLat="0.00" departSpeed="0.00" departDelay="6.47" arrival="79.00" arrivalLane="E1C1_1" arrivalPos="260.00" arrivalPosLat="0.00" arrivalSpeed="15.09" duration="45.00" routeLength="598.24" waitingTime="0.00" waitingCount="0" stopTime="0.00" timeLoss="5.14" rerouteNo="1" devices="tripinfo_WBT_flow.9 routing_WBT_flow.9" vType="Auto" speedFactor="1.09" vaporized=""/>
    <tripinfo id="EBT_flow.5" depart="21.00" departLane="C1E1_0" departPos="4.10" departPosLat="0.00" departSpeed="0.00" departDelay="5.31" arrival="80.00" arrivalLane="E3J2_2" arrivalPos="260.00" arrivalPosLat="0.00" arrivalSpeed="11.81" duration="59.00" routeLength="598.24" waitingTime="1.00" waitingCount="1" stopTime="0.00" timeLoss="11.59" rerouteNo="1" devices="tripinfo_EBT_flow.5 routing_EBT_flow.5" vType="Auto" speedFactor="0.92" vaporized=""/>
    <tripinfo id="EBT_flow.8" depart="29.00" departLane="C1E1_0" departPos="4.10" departPosLat="0.00" departSpeed="0.00" departDelay="3.89" arrival="80.00" arrivalLane="E3J2_0" arrivalPos="260.00" arrivalPosLat="0.00" arrivalSpeed="14.95" duration="51.00" routeLength="598.24" waitingTime="1.00" waitingCount="1" stopTime="0.00" timeLoss="11.60" rerouteNo="1" devices="tripinfo_EBT_flow.8 routing_EBT_flow.8" vType="Auto" speedFactor="1.10" vaporized=""/>
    <tripinfo id="WBT_flow.5" depart="19.00" departLane="J2E3_0" departPos="4.10" departPosLat="0.00" departSpeed="0.00" departDelay="3.71" arrival="82.00" arrivalLane="E1C1_1" arrivalPos="260.00" arrivalPosLat="0.00" arrivalSpeed="12.75" duration="63.00" routeLength="598.24" waitingTime="2.00" waitingCount="1" stopTime="0.00" timeLoss="17.55" rerouteNo="1" devices="tripinfo_WBT_flow.5 routing_WBT_flow.5" vType="Auto" speedFactor="0.95" vaporized=""/>
    <tripinfo id="EBT_flow.6" depart="24.00" departLane="C1E1_0" departPos="4.10" departPosLat="0.00" departSpeed="0.00" departDelay="5.17" arrival="82.00" arrivalLane="E3J2_0" arrivalPos="260.00" arrivalPosLat="1.50" arrivalSpeed="12.87" duration="58.00" routeLength="598.24" waitingTime="0.00" waitingCount="0" stopTime="0.00" timeLoss="10.95" rerouteNo="1" devices="tripinfo_EBT_flow.6 routing_EBT_flow.6" vType="Auto" speedFactor="0.93" vaporized=""/>
    <tripinfo id="WBT_flow.4" depart="16.00" departLane="J2E3_0" departPos="4.10" departPosLat="0.00" departSpeed="0.00" departDelay="3.76" arrival="83.00" arrivalLane="E1C1_0" arrivalPos="260.00" arrivalPosLat="0.00" arrivalSpeed="10.27" duration="67.00" routeLength="598.24" waitingTime="3.00" waitingCount="1" stopTime="0.00" timeLoss="14.27" rerouteNo="1" devices="tripinfo_WBT_flow.4 routing_WBT_flow.4" vType="Auto" speedFactor="0.83" vaporized=""/>
    <tripinfo id="WBT_flow.10" depart="36.00" departLane="J2E3_0" departPos="4.10" departPosLat="0.00" departSpeed="0.00" departDelay="5.41" arrival="85.00" arrivalLane="E1C1_0" arrivalPos="260.00" arrivalPosLat="0.00" arrivalSpeed="12.53" duration="49.00" routeLength="598.24" waitingTime="0.00" waitingCount="0" stopTime="0.00" timeLoss="5.48" rerouteNo="1" devices="tripinfo_WBT_flow.10 routing_WBT_flow.10" vType="Auto" speedFactor="1.00" vaporized=""/>
    <tripinfo id="EBR_flow.1" depart="33.00" departLane="C1E1_0" departPos="4.10" departPosLat="0.00" departSpeed="0.00" departDelay="6.13" arrival="86.00" arrivalLane="E4C4_0" arrivalPos="260.00" arrivalPosLat="0.50" arrivalSpeed="11.48" duration="53.00" routeLength="578.51" waitingTime="0.00" waitingCount="0" stopTime="0.00" timeLoss="5.77" rerouteNo="1" devices="tripinfo_EBR_flow.1 routing_EBR_flow.1" vType="Auto" speedFactor="0.90" vaporized=""/>
    <tripinfo id="EBT_flow.9" depart="38.00" departLane="C1E1_0" departPos="4.10" departPosLat="0.00" departSpeed="0.00" departDelay="9.75" arrival="86.00" arrivalLane="E3J2_0" arrivalPos="260.00" arrivalPosLat="0.00" arrivalSpeed="13.75" duration="48.00" routeLength="598.24" waitingTime="0.00" waitingCount="0" stopTime="0.00" timeLoss="6.14" rerouteNo="1" devices="tripinfo_EBT_flow.9 routing_EBT_flow.9" vType="Auto" speedFactor="1.04" vaporized=""/>
    <tripinfo id="WBT_flow.12" depart="42.00" departLane="J2E3_0" departPos="4.10" departPosLat="0.00" departSpeed="0.00" departDelay="5.29" arrival="86.00" arrivalLane="E1C1_1" arrivalPos="260.00" arrivalPosLat="0.00" arrivalSpeed="14.61" duration="44.00" routeLength="598.24" waitingTime="0.00" waitingCount="0" stopTime="0.00" timeLoss="4.28" rerouteNo="1" devices="tripinfo_WBT_flow.12 routing_WBT_flow.12" vType="Auto" speedFactor="1.10" vaporized=""/>
    <tripinfo id="WBT_flow.14" depart="47.00" departLane="J2E3_0" departPos="4.10" departPosLat="0.00" departSpeed="0.00" departDelay="4.17" arrival="92.00" arrivalLane="E1C1_1" arrivalPos="260.00" arrivalPosLat="0.00" arrivalSpeed="14.86" duration="45.00" routeLength="598.24" waitingTime="0.00" waitingCount="0" stopTime="0.00" timeLoss="4.72" rerouteNo="1" devices="tripinfo_WBT_flow.14 routing_WBT_flow.14" vType="Auto" speedFactor="1.08" vaporized=""/>
    <tripinfo id="EBT_flow.10" depart="41.00" departLane="C1E1_0" departPos="4.10" departPosLat="0.00" departSpeed="0.00" departDelay="9.61" arrival="95.00" arrivalLane="E3J2_0" arrivalPos="260.00" arrivalPosLat="0.00" arrivalSpeed="11.35" duration="54.00" routeLength="598.24" waitingTime="0.00" waitingCount="0" stopTime="0.00" timeLoss="6.09" rerouteNo="1" devices="tripinfo_EBT_flow.10 routing_EBT_flow.10" vType="Auto" speedFactor="0.90" vaporized=""/>
    <tripinfo id="WBT_flow.11" depart="39.00" departLane="J2E3_0" departPos="4.10" departPosLat="0.00" departSpeed="0.00" departDelay="5.35" arrival="95.00" arrivalLane="E1C1_0" arrivalPos="260.00" arrivalPosLat="0.00" arrivalSpeed="10.92" duration="56.00" routeLength="598.24" waitingTime="0.00" waitingCount="0" stopTime="0.00" timeLoss="5.32" rerouteNo="1" devices="tripinfo_WBT_flow.11 routing_WBT_flow.11" vType="Auto" speedFactor="0.85" vaporized=""/>
    <tripinfo id="EBT_flow.12" depart="47.00" departLane="C1E1_0" departPos="4.10" departPosLat="0.00" departSpeed="0.00" departDelay="9.33" arrival="96.00" arrivalLane="E3J2_1" arrivalPos="260.00" arrivalPosLat="0.00" arrivalSpeed="13.81" duration="49.00" routeLength="598.24" waitingTime="0.00" waitingCount="0" stopTime="0.00" timeLoss="5.53" rerouteNo="1" devices="tripinfo_EBT_flow.12 routing_EBT_flow.12" vType="Auto" speedFactor="1.00" vaporized=""/>
    <tripinfo id="EBT_flow.13" depart="50.00" departLane="C1E1_0" departPos="4.10" departPosLat="0.00" departSpeed="0.00" departDelay="9.19" arrival="97.00" arrivalLane="E3J2_1" arrivalPos="260.00" arrivalPosLat="0.00" arrivalSpeed="15.35" duration="47.00" routeLength="598.24" waitingTime="0.00" waitingCount="0" stopTime="0.00" timeLoss="9.20" rerouteNo="1" devices="tripinfo_EBT_flow.13 routing_EBT_flow.13" vType="Auto" speedFactor="1.14" vaporized=""/>
    <tripinfo id="WBT_flow.13" depart="44.00" departLane="J2E3_0" departPos="4.10" departPosLat="0.00" departSpeed="0.00" departDelay="4.23" arrival="98.00" arrivalLane="E1C1_0" arrivalPos="260.00" arrivalPosLat="0.00" arrivalSpeed="12.41" duration="54.00" routeLength="598.24" waitingTime="0.00" waitingCount="0" stopTime="0.00" timeLoss="5.55" rerouteNo="1" devices="tripinfo_WBT_flow.13 routing_WBT_flow.13" vType="Auto" speedFactor="0.90" vaporized=""/>
    <tripinfo id="EBT_flow.14" depart="53.00" departLane="C1E1_0" departPos="4.10" departPosLat="0.00" departSpeed="0.00" departDelay="9.05" arrival="98.00" arrivalLane="E3J2_2" arrivalPos="260.00" arrivalPosLat="0.00" arrivalSpeed="15.02" duration="45.00" routeLength="598.24" waitingTime="0.00" waitingCount="0" stopTime="0.00" timeLoss="6.33" rerouteNo="1" devices="tripinfo_EBT_flow.14 routing_EBT_flow.14" vType="Auto" speedFactor="1.12" vaporized=""/>
    <tripinfo id="WBT_flow.15" depart="51.00" departLane="J2E3_0" departPos="4.10" departPosLat="0.00" departSpeed="0.00" departDelay="5.12" arrival="100.00" arrivalLane="E1C1_0" arrivalPos="260.00" arrivalPosLat="0.00" arrivalSpeed="13.50" duration="49.00" routeLength="598.24" waitingTime="0.00" waitingCount="0" stopTime="0.00" timeLoss="5.08" rerouteNo="1" devices="tripinfo_WBT_flow.15 routing_WBT_flow.15" vType="Auto" speedFactor="0.99" vaporized=""/>
    <tripinfo id="EBT_flow.11" depart="44.00" departLane="C1E1_0" departPos="4.10" departPosLat="0.00" departSpeed="0.00" departDelay="9.47" arrival="101.00" arrivalLane="E3J2_0" arrivalPos="260.00" arrivalPosLat="0.00" arrivalSpeed="10.74" duration="57.00" routeLength="598.24" waitingTime="0.00" waitingCount="0" stopTime="0.00" timeLoss="6.57" rerouteNo="1" devices="tripinfo_EBT_flow.11 routing_EBT_flow.11" vType="Auto" speedFactor="0.85" vaporized=""/>
    <tripinfo id="WBT_flow.16" depart="53.00" departLane="J2E3_0" departPos="4.10" departPosLat="0.00" departSpeed="0.00" departDelay="4.06" arrival="101.00" arrivalLane="E1C1_1" arrivalPos="260.00" arrivalPosLat="0.00" arrivalSpeed="14.05" duration="48.00" routeLength="598.24" waitingTime="0.00" waitingCount="0" stopTime="0.00" timeLoss="5.89" rerouteNo="1" devices="tripinfo_WBT_flow.16 routing_WBT_flow.16" vType="Auto" speedFactor="1.04" vaporized=""/>
    <tripinfo id="WBR_flow.1" depart="56.00" departLane="J2E3_0" departPos="4.10" departPosLat="0.00" departSpeed="0.00" departDelay="6.69" arrival="104.00" arrivalLane="E2N1_1" arrivalPos="260.00" arrivalPosLat="0.00" arrivalSpeed="13.20" duration="48.00" routeLength="578.51" waitingTime="0.00" waitingCount="0" stopTime="0.00" timeLoss="6.77" rerouteNo="1" devices="tripinfo_WBR_flow.1 routing_WBR_flow.1" vType="Auto" speedFactor="1.02" vaporized=""/>
    <tripinfo id="EBT_flow.16" depart="59.00" departLane="C1E1_0" departPos="4.10" departPosLat="0.00" departSpeed="0.00" departDelay="8.78" arrival="106.00" arrivalLane="E3J2_1" arrivalPos="260.00" arrivalPosLat="0.00" arrivalSpeed="13.88" duration="47.00" routeLength="598.24" waitingTime="0.00" waitingCount="0" stopTime="0.00" timeLoss="4.51" rerouteNo="1" devices="tripinfo_EBT_flow.16 routing_EBT_flow.16" vType="Auto" speedFactor="1.02" vaporized=""/>
    <tripinfo id="WBT_flow.17" depart="58.00" departLane="J2E3_0" departPos="4.10" departPosLat="0.00" departSpeed="0.00" departDelay="6.00" arrival="106.00" arrivalLane="E1C1_0" arrivalPos="260.00" arrivalPosLat="0.00" arrivalSpeed="14.37" duration="48.00" routeLength="598.24" waitingTime="1.00" waitingCount="1" stopTime="0.00" timeLoss="6.52" rerouteNo="1" devices="tripinfo_WBT_flow.17 routing_WBT_flow.17" vType="Auto" speedFactor="1.06" vaporized=""/>
    <tripinfo id="EBT_flow.15" depart="56.00" departLane="C1E1_0" departPos="4.10" departPosLat="0.00" departSpeed="0.00" departDelay="8.92" arrival="110.00" arrivalLane="E3J2_0" arrivalPos="260.00" arrivalPosLat="0.00" arrivalSpeed="12.34" duration="54.00" routeLength="598.24" waitingTime="0.00" waitingCount="0" stopTime="0.00" timeLoss="5.66" rerouteNo="1" devices="tripinfo_EBT_flow.15 routing_EBT_flow.15" vType="Auto" speedFactor="0.91" vaporized=""/>
    <tripinfo id="WBL_flow.0" depart="0.00" departLane="J2E3_0" departPos="4.10" departPosLat="0.00" departSpeed="0.00" departDelay="0.00" arrival="113.00" arrivalLane="E4C4_0" arrivalPos="260.00" arrivalPosLat="0.00" arrivalSpeed="15.09" duration="113.00" routeLength="601.29" waitingTime="64.00" waitingCount="1" stopTime="0.00" timeLoss="72.94" rerouteNo="1" devices="tripinfo_WBL_flow.0 routing_WBL_flow.0" vType="Auto" speedFactor="1.09" vaporized=""/>
    <tripinfo id="EBL_flow.1" depart="35.00" departLane="C1E1_0" departPos="4.10" departPosLat="0.00" departSpeed="0.00" departDelay="8.91" arrival="117.00" arrivalLane="E2N1_1" arrivalPos="260.00" arrivalPosLat="0.00" arrivalSpeed="14.20" duration="82.00" routeLength="601.29" waitingTime="27.00" waitingCount="1" stopTime="0.00" timeLoss="39.13" rerouteNo="1" devices="tripinfo_EBL_flow.1 routing_EBL_flow.1" vType="Auto" speedFactor="1.03" vaporized=""/>
    <tripinfo id="WBL_flow.1" depart="30.00" departLane="J2E3_0" departPos="4.10" departPosLat="0.00" departSpeed="0.00" departDelay="2.31" arrival="119.00" arrivalLane="E4C4_0" arrivalPos="260.00" arrivalPosLat="0.00" arrivalSpeed="12.89" duration="89.00" routeLength="601.29" waitingTime="32.00" waitingCount="1" stopTime="0.00" timeLoss="42.40" rerouteNo="1" devices="tripinfo_WBL_flow.1 routing_WBL_flow.1" vType="Auto" speedFactor="0.96" vaporized=""/>
    <tripinfo id="EBL_flow.0" depart="6.00" departLane="C1E1_0" departPos="4.10" departPosLat="0.00" departSpeed="0.00" departDelay="6.00" arrival="120.00" arrivalLane="E2N1_0" arrivalPos="260.00" arrivalPosLat="0.00" arrivalSpeed="10.90" duration="114.00" routeLength="601.29" waitingTime="52.00" waitingCount="1" stopTime="0.00" timeLoss="62.55" rerouteNo="1" devices="tripinfo_EBL_flow.0 routing_EBL_flow.0" vType="Auto" speedFactor="0.86" vaporized=""/>
    <tripinfo id="WBL_flow.2" depart="62.00" departLane="J2E3_0" departPos="4.10" departPosLat="0.00" departSpeed="0.00" departDelay="6.62" arrival="120.00" arrivalLane="E4C4_0" arrivalPos="260.00" arrivalPosLat="1.00" arrivalSpeed="12.48" duration="58.00" routeLength="601.29" waitingTime="2.00" waitingCount="1" stopTime="0.00" timeLoss="13.30" rerouteNo="1" devices="tripinfo_WBL_flow.2 routing_WBL_flow.2" vType="Auto" speedFactor="0.98" vaporized=""/>
    <tripinfo id="EBL_flow.2" depart="61.00" departLane="C1E1_0" departPos="4.10" departPosLat="0.00" departSpeed="0.00" departDelay="8.83" arrival="121.00" arrivalLane="E2N1_1" arrivalPos="260.00" arrivalPosLat="-1.50" arrivalSpeed="11.84" duration="60.00" routeLength="601.29" waitingTime="3.00" waitingCount="1" stopTime="0.00" timeLoss="13.48" rerouteNo="1" devices="tripinfo_EBL_flow.2 routing_EBL_flow.2" vType="Auto" speedFactor="0.94" vaporized=""/>
    <tripinfo id="NBT_flow.2" depart="12.00" departLane="C4E4_0" departPos="4.10" departPosLat="0.00" departSpeed="0.00" departDelay="2.48" arrival="122.00" arrivalLane="E2N1_1" arrivalPos="260.00" arrivalPosLat="0.80" arrivalSpeed="14.64" duration="110.00" routeLength="598.24" waitingTime="63.00" waitingCount="1" stopTime="0.00" timeLoss="72.73" rerouteNo="1" devices="tripinfo_NBT_flow.2 routing_NBT_flow.2" vType="Auto" speedFactor="1.16" vaporized=""/>
    <tripinfo id="SBR_flow.0" depart="5.00" departLane="N1E2_0" departPos="4.10" departPosLat="0.00" departSpeed="0.00" departDelay="5.00" arrival="123.00" arrivalLane="E1C1_1" arrivalPos="260.00" arrivalPosLat="0.00" arrivalSpeed="13.86" duration="118.00" routeLength="578.51" waitingTime="69.00" waitingCount="2" stopTime="0.00" timeLoss="76.25" rerouteNo="1" devices="tripinfo_SBR_flow.0 routing_SBR_flow.0" vType="Auto" speedFactor="1.01" vaporized=""/>
    <tripinfo id="NBR_flow.0" depart="6.00" departLane="C4E4_0" departPos="4.10" departPosLat="0.00" departSpeed="0.00" departDelay="6.00" arrival="125.00" arrivalLane="E3J2_1" arrivalPos="260.00" arrivalPosLat="0.00" arrivalSpeed="13.34" duration="119.00" routeLength="578.51" waitingTime="65.00" waitingCount="1" stopTime="0.00" timeLoss="78.35" rerouteNo="1" devices="tripinfo_NBR_flow.0 routing_NBR_flow.0" vType="Auto" speedFactor="1.05" vaporized=""/>
    <tripinfo id="SBT_flow.3" depart="18.00" departLane="N1E2_0" departPos="4.10" departPosLat="0.00" departSpeed="0.00" departDelay="0.06" arrival="125.00" arrivalLane="E4C4_1" arrivalPos="260.00" arrivalPosLat="0.00" arrivalSpeed="15.01" duration="107.00" routeLength="598.24" waitingTime="53.00" waitingCount="1" stopTime="0.00" timeLoss="68.92" rerouteNo="1" devices="tripinfo_SBT_flow.3 routing_SBT_flow.3" vType="Auto" speedFactor="1.13" vaporized=""/>
    <tripinfo id="SBT_flow.2" depart="14.00" departLane="N1E2_0" departPos="4.10" departPosLat="0.00" departSpeed="0.00" departDelay="2.04" arrival="126.00" arrivalLane="E4C4_0" arrivalPos="260.00" arrivalPosLat="0.00" arrivalSpeed="12.39" duration="112.00" routeLength="598.24" waitingTime="58.00" waitingCount="1" stopTime="0.00" timeLoss="67.20" rerouteNo="1" devices="tripinfo_SBT_flow.2 routing_SBT_flow.2" vType="Auto" speedFactor="0.98" vaporized=""/>
    <tripinfo id="NBT_flow.4" depart="20.00" departLane="C4E4_0" departPos="4.10" departPosLat="0.00" departSpeed="0.00" departDelay="0.95" arrival="127.00" arrivalLane="E2N1_2" arrivalPos="260.00" arrivalPosLat="0.00" arrivalSpeed="15.83" duration="107.00" routeLength="598.24" waitingTime="57.00" waitingCount="1" stopTime="0.00" timeLoss="69.62" rerouteNo="1" devices="tripinfo_NBT_flow.4 routing_NBT_flow.4" vType="Auto" speedFactor="1.15" vaporized=""/>
    <tripinfo id="NBT_flow.0" depart="3.00" departLane="C4E4_0" departPos="4.10" departPosLat="0.00" departSpeed="0.00" departDelay="3.00" arrival="129.00" arrivalLane="E2N1_0" arrivalPos="260.00" arrivalPosLat="0.00" arrivalSpeed="11.16" duration="126.00" routeLength="598.24" waitingTime="66.00" waitingCount="1" stopTime="0.00" timeLoss="74.09" rerouteNo="1" devices="tripinfo_NBT_flow.0 routing_NBT_flow.0" vType="Auto" speedFactor="0.83" vaporized=""/>
    <tripinfo id="NBT_flow.1" depart="9.00" departLane="C4E4_0" departPos="4.10" departPosLat="0.00" departSpeed="0.00" departDelay="4.24" arrival="129.00" arrivalLane="E2N1_1" arrivalPos="260.00" arrivalPosLat="0.00" arrivalSpeed="11.54" duration="120.00" routeLength="598.24" waitingTime="60.00" waitingCount="1" stopTime="0.00" timeLoss="72.97" rerouteNo="1" devices="tripinfo_NBT_flow.1 routing_NBT_flow.1" vType="Auto" speedFactor="0.93" vaporized=""/>
    <tripinfo id="SBT_flow.4" depart="24.00" departLane="N1E2_0" departPos="4.10" departPosLat="0.00" departSpeed="0.00" departDelay="0.08" arrival="129.00" arrivalLane="E4C4_1" arrivalPos="260.00" arrivalPosLat="0.00" arrivalSpeed="13.68" duration="105.00" routeLength="598.24" waitingTime="52.00" waitingCount="1" stopTime="0.00" timeLoss="61.52" rerouteNo="1" devices="tripinfo_SBT_flow.4 routing_SBT_flow.4" vType="Auto" speedFactor="0.99" vaporized=""/>
    <tripinfo id="SBT_flow.6" depart="36.00" departLane="N1E2_0" departPos="4.10" departPosLat="0.00" departSpeed="0.00" departDelay="0.12" arrival="129.00" arrivalLane="E4C4_2" arrivalPos="260.00" arrivalPosLat="0.00" arrivalSpeed="15.34" duration="93.00" routeLength="598.24" waitingTime="42.00" waitingCount="1" stopTime="0.00" timeLoss="55.50" rerouteNo="1" devices="tripinfo_SBT_flow.6 routing_SBT_flow.6" vType="Auto" speedFactor="1.17" vaporized=""/>
    <tripinfo id="NBT_flow.5" depart="24.00" departLane="C4E4_0" departPos="4.10" departPosLat="0.00" departSpeed="0.00" departDelay="0.19" arrival="130.00" arrivalLane="E2N1_1" arrivalPos="260.00" arrivalPosLat="0.00" arrivalSpeed="13.56" duration="106.00" routeLength="598.24" waitingTime="52.00" waitingCount="1" stopTime="0.00" timeLoss="63.72" rerouteNo="1" devices="tripinfo_NBT_flow.5 routing_NBT_flow.5" vType="Auto" speedFactor="1.02" vaporized=""/>
    <tripinfo id="SBT_flow.1" depart="11.00" departLane="N1E2_0" departPos="4.10" departPosLat="0.00" departSpeed="0.00" departDelay="5.02" arrival="131.00" arrivalLane="E4C4_0" arrivalPos="260.00" arrivalPosLat="0.00" arrivalSpeed="10.94" duration="120.00" routeLength="598.24" waitingTime="60.00" waitingCount="1" stopTime="0.00" timeLoss="70.73" rerouteNo="1" devices="tripinfo_SBT_flow.1 routing_SBT_flow.1" vType="Auto" speedFactor="0.88" vaporized=""/>
    <tripinfo id="SBT_flow.5" depart="30.00" departLane="N1E2_0" departPos="4.10" departPosLat="0.00" departSpeed="0.00" departDelay="0.10" arrival="131.00" arrivalLane="E4C4_2" arrivalPos="260.00" arrivalPosLat="0.00" arrivalSpeed="14.70" duration="101.00" routeLength="598.24" waitingTime="45.00" waitingCount="1" stopTime="0.00" timeLoss="60.61" rerouteNo="1" devices="tripinfo_SBT_flow.5 routing_SBT_flow.5" vType="Auto" speedFactor="1.09" vaporized=""/>